<?xml version="1.0"?>
<VTKFile type="UnstructuredGrid" version="0.1" byte_order="LittleEndian">
	<UnstructuredGrid>
		<Piece NumberOfPoints="8000" NumberOfCells="41154">
			<Points>
				<DataArray type="Float32" NumberOfComponents="3" format="ascii">
0 0 0.00526316 0 0.00526316 0.00526316 0.0105263 0.00526316 0.00526316 0 0 0 0 0.00526316 0 0.0105263 0.00526316 0 0.0105263 0 0.00526316 0.0105263 0 0 0.0210526 0.00526316 0.00526316 0.0210526 0.00526316 0 0.0210526 0 0.00526316 0.0210526 0 0 0.0315789 0.00526316 0.00526316 0.0315789 0.00526316 0 0.0315789 0 0.00526316 0.0315789 0 0 0.0421053 0.00526316 0.00526316 0.0421053 0.00526316 0 0.0421053 0 0.00526316 0.0421053 0 0 0.0526316 0.00526316 0.00526316 0.0526316 0.00526316 0 0.0526316 0 0.00526316 0.0526316 0 0 0.0631579 0.00526316 0.00526316 0.0631579 0.00526316 0 0.0631579 0 0.00526316 0.0631579 0 0 0.0736842 0.00526316 0.00526316 0.0736842 0.00526316 0 0.0736842 0 0.00526316 0.0736842 0 0 0.0842105 0.00526316 0.00526316 0.0842105 0.00526316 0 0.0842105 0 0.00526316 0.0842105 0 0 0.0947368 0.00526316 0.00526316 0.0947368 0.00526316 0 0.0947368 0 0.00526316 0.0947368 0 0 0.105263 0 0 0.105263 0 0.00526316 0.105263 0.00526316 0 0.105263 0.00526316 0.00526316 0.115789 0 0 0.115789 0 0.00526316 0.115789 0.00526316 0 0.115789 0.00526316 0.00526316 0.126316 0 0 0.126316 0 0.00526316 0.126316 0.00526316 0 0.126316 0.00526316 0.00526316 0.136842 0 0 0.136842 0 0.00526316 0.136842 0.00526316 0 0.136842 0.00526316 0.00526316 0.147368 0 0 0.147368 0 0.00526316 0.147368 0.00526316 0 0.147368 0.00526316 0.00526316 0.157895 0 0 0.157895 0 0.00526316 0.157895 0.00526316 0 0.157895 0.00526316 0.00526316 0.168421 0 0 0.168421 0 0.00526316 0.168421 0.00526316 0 0.168421 0.00526316 0.00526316 0.178947 0 0 0.178947 0 0.00526316 0.178947 0.00526316 0 0.178947 0.00526316 0.00526316 0.189474 0 0 0.189474 0 0.00526316 0.189474 0.00526316 0 0.189474 0.00526316 0.00526316 0.2 0 0 0.2 0 0.00526316 0.2 0.00526316 0 0.2 0.00526316 0.00526316 0 0.0105263 0.00526316 0.0105263 0.0105263 0.00526316 0 0.0105263 0 0.0105263 0.0105263 0 0.0210526 0.0105263 0.00526316 0.0210526 0.0105263 0 0.0315789 0.0105263 0.00526316 0.0315789 0.0105263 0 0.0421053 0.0105263 0.00526316 0.0421053 0.0105263 0 0.0526316 0.0105263 0.00526316 0.0526316 0.0105263 0 0.0631579 0.0105263 0.00526316 0.0631579 0.0105263 0 0.0736842 0.0105263 0.00526316 0.0736842 0.0105263 0 0.0842105 0.0105263 0.00526316 0.0842105 0.0105263 0 0.0947368 0.0105263 0.00526316 0.0947368 0.0105263 0 0.105263 0.0105263 0 0.105263 0.0105263 0.00526316 0.115789 0.0105263 0 0.115789 0.0105263 0.00526316 0.126316 0.0105263 0 0.126316 0.0105263 0.00526316 0.136842 0.0105263 0 0.136842 0.0105263 0.00526316 0.147368 0.0105263 0 0.147368 0.0105263 0.00526316 0.157895 0.0105263 0 0.157895 0.0105263 0.00526316 0.168421 0.0105263 0 0.168421 0.0105263 0.00526316 0.178947 0.0105263 0 0.178947 0.0105263 0.00526316 0.189474 0.0105263 0 0.189474 0.0105263 0.00526316 0.2 0.0105263 0 0.2 0.0105263 0.00526316 0 0.0157895 0.00526316 0.0105263 0.0157895 0.00526316 0 0.0157895 0 0.0105263 0.0157895 0 0.0210526 0.0157895 0.00526316 0.0210526 0.0157895 0 0.0315789 0.0157895 0.00526316 0.0315789 0.0157895 0 0.0421053 0.0157895 0.00526316 0.0421053 0.0157895 0 0.0526316 0.0157895 0.00526316 0.0526316 0.0157895 0 0.0631579 0.0157895 0.00526316 0.0631579 0.0157895 0 0.0736842 0.0157895 0.00526316 0.0736842 0.0157895 0 0.0842105 0.0157895 0.00526316 0.0842105 0.0157895 0 0.0947368 0.0157895 0.00526316 0.0947368 0.0157895 0 0.105263 0.0157895 0 0.105263 0.0157895 0.00526316 0.115789 0.0157895 0 0.115789 0.0157895 0.00526316 0.126316 0.0157895 0 0.126316 0.0157895 0.00526316 0.136842 0.0157895 0 0.136842 0.0157895 0.00526316 0.147368 0.0157895 0 0.147368 0.0157895 0.00526316 0.157895 0.0157895 0 0.157895 0.0157895 0.00526316 0.168421 0.0157895 0 0.168421 0.0157895 0.00526316 0.178947 0.0157895 0 0.178947 0.0157895 0.00526316 0.189474 0.0157895 0 0.189474 0.0157895 0.00526316 0.2 0.0157895 0 0.2 0.0157895 0.00526316 0 0.0210526 0.00526316 0.0105263 0.0210526 0.00526316 0 0.0210526 0 0.0105263 0.0210526 0 0.0210526 0.0210526 0.00526316 0.0210526 0.0210526 0 0.0315789 0.0210526 0.00526316 0.0315789 0.0210526 0 0.0421053 0.0210526 0.00526316 0.0421053 0.0210526 0 0.0526316 0.0210526 0.00526316 0.0526316 0.0210526 0 0.0631579 0.0210526 0.00526316 0.0631579 0.0210526 0 0.0736842 0.0210526 0.00526316 0.0736842 0.0210526 0 0.0842105 0.0210526 0.00526316 0.0842105 0.0210526 0 0.0947368 0.0210526 0.00526316 0.0947368 0.0210526 0 0.105263 0.0210526 0 0.105263 0.0210526 0.00526316 0.115789 0.0210526 0 0.115789 0.0210526 0.00526316 0.126316 0.0210526 0 0.126316 0.0210526 0.00526316 0.136842 0.0210526 0 0.136842 0.0210526 0.00526316 0.147368 0.0210526 0 0.147368 0.0210526 0.00526316 0.157895 0.0210526 0 0.157895 0.0210526 0.00526316 0.168421 0.0210526 0 0.168421 0.0210526 0.00526316 0.178947 0.0210526 0 0.178947 0.0210526 0.00526316 0.189474 0.0210526 0 0.189474 0.0210526 0.00526316 0.2 0.0210526 0 0.2 0.0210526 0.00526316 0 0.0263158 0.00526316 0.0105263 0.0263158 0.00526316 0 0.0263158 0 0.0105263 0.0263158 0 0.0210526 0.0263158 0.00526316 0.0210526 0.0263158 0 0.0315789 0.0263158 0.00526316 0.0315789 0.0263158 0 0.0421053 0.0263158 0.00526316 0.0421053 0.0263158 0 0.0526316 0.0263158 0.00526316 0.0526316 0.0263158 0 0.0631579 0.0263158 0.00526316 0.0631579 0.0263158 0 0.0736842 0.0263158 0.00526316 0.0736842 0.0263158 0 0.0842105 0.0263158 0.00526316 0.0842105 0.0263158 0 0.0947368 0.0263158 0.00526316 0.0947368 0.0263158 0 0.105263 0.0263158 0 0.105263 0.0263158 0.00526316 0.115789 0.0263158 0 0.115789 0.0263158 0.00526316 0.126316 0.0263158 0 0.126316 0.0263158 0.00526316 0.136842 0.0263158 0 0.136842 0.0263158 0.00526316 0.147368 0.0263158 0 0.147368 0.0263158 0.00526316 0.157895 0.0263158 0 0.157895 0.0263158 0.00526316 0.168421 0.0263158 0 0.168421 0.0263158 0.00526316 0.178947 0.0263158 0 0.178947 0.0263158 0.00526316 0.189474 0.0263158 0 0.189474 0.0263158 0.00526316 0.2 0.0263158 0 0.2 0.0263158 0.00526316 0 0.0315789 0.00526316 0.0105263 0.0315789 0.00526316 0 0.0315789 0 0.0105263 0.0315789 0 0.0210526 0.0315789 0.00526316 0.0210526 0.0315789 0 0.0315789 0.0315789 0.00526316 0.0315789 0.0315789 0 0.0421053 0.0315789 0.00526316 0.0421053 0.0315789 0 0.0526316 0.0315789 0.00526316 0.0526316 0.0315789 0 0.0631579 0.0315789 0.00526316 0.0631579 0.0315789 0 0.0736842 0.0315789 0.00526316 0.0736842 0.0315789 0 0.0842105 0.0315789 0.00526316 0.0842105 0.0315789 0 0.0947368 0.0315789 0.00526316 0.0947368 0.0315789 0 0.105263 0.0315789 0 0.105263 0.0315789 0.00526316 0.115789 0.0315789 0 0.115789 0.0315789 0.00526316 0.126316 0.0315789 0 0.126316 0.0315789 0.00526316 0.136842 0.0315789 0 0.136842 0.0315789 0.00526316 0.147368 0.0315789 0 0.147368 0.0315789 0.00526316 0.157895 0.0315789 0 0.157895 0.0315789 0.00526316 0.168421 0.0315789 0 0.168421 0.0315789 0.00526316 0.178947 0.0315789 0 0.178947 0.0315789 0.00526316 0.189474 0.0315789 0 0.189474 0.0315789 0.00526316 0.2 0.0315789 0 0.2 0.0315789 0.00526316 0 0.0368421 0.00526316 0.0105263 0.0368421 0.00526316 0 0.0368421 0 0.0105263 0.0368421 0 0.0210526 0.0368421 0.00526316 0.0210526 0.0368421 0 0.0315789 0.0368421 0.00526316 0.0315789 0.0368421 0 0.0421053 0.0368421 0.00526316 0.0421053 0.0368421 0 0.0526316 0.0368421 0.00526316 0.0526316 0.0368421 0 0.0631579 0.0368421 0.00526316 0.0631579 0.0368421 0 0.0736842 0.0368421 0.00526316 0.0736842 0.0368421 0 0.0842105 0.0368421 0.00526316 0.0842105 0.0368421 0 0.0947368 0.0368421 0.00526316 0.0947368 0.0368421 0 0.105263 0.0368421 0 0.105263 0.0368421 0.00526316 0.115789 0.0368421 0 0.115789 0.0368421 0.00526316 0.126316 0.0368421 0 0.126316 0.0368421 0.00526316 0.136842 0.0368421 0 0.136842 0.0368421 0.00526316 0.147368 0.0368421 0 0.147368 0.0368421 0.00526316 0.157895 0.0368421 0 0.157895 0.0368421 0.00526316 0.168421 0.0368421 0 0.168421 0.0368421 0.00526316 0.178947 0.0368421 0 0.178947 0.0368421 0.00526316 0.189474 0.0368421 0 0.189474 0.0368421 0.00526316 0.2 0.0368421 0 0.2 0.0368421 0.00526316 0 0.0421053 0.00526316 0.0105263 0.0421053 0.00526316 0 0.0421053 0 0.0105263 0.0421053 0 0.0210526 0.0421053 0.00526316 0.0210526 0.0421053 0 0.0315789 0.0421053 0.00526316 0.0315789 0.0421053 0 0.0421053 0.0421053 0.00526316 0.0421053 0.0421053 0 0.0526316 0.0421053 0.00526316 0.0526316 0.0421053 0 0.0631579 0.0421053 0.00526316 0.0631579 0.0421053 0 0.0736842 0.0421053 0.00526316 0.0736842 0.0421053 0 0.0842105 0.0421053 0.00526316 0.0842105 0.0421053 0 0.0947368 0.0421053 0.00526316 0.0947368 0.0421053 0 0.105263 0.0421053 0 0.105263 0.0421053 0.00526316 0.115789 0.0421053 0 0.115789 0.0421053 0.00526316 0.126316 0.0421053 0 0.126316 0.0421053 0.00526316 0.136842 0.0421053 0 0.136842 0.0421053 0.00526316 0.147368 0.0421053 0 0.147368 0.0421053 0.00526316 0.157895 0.0421053 0 0.157895 0.0421053 0.00526316 0.168421 0.0421053 0 0.168421 0.0421053 0.00526316 0.178947 0.0421053 0 0.178947 0.0421053 0.00526316 0.189474 0.0421053 0 0.189474 0.0421053 0.00526316 0.2 0.0421053 0 0.2 0.0421053 0.00526316 0 0.0473684 0.00526316 0.0105263 0.0473684 0.00526316 0 0.0473684 0 0.0105263 0.0473684 0 0.0210526 0.0473684 0.00526316 0.0210526 0.0473684 0 0.0315789 0.0473684 0.00526316 0.0315789 0.0473684 0 0.0421053 0.0473684 0.00526316 0.0421053 0.0473684 0 0.0526316 0.0473684 0.00526316 0.0526316 0.0473684 0 0.0631579 0.0473684 0.00526316 0.0631579 0.0473684 0 0.0736842 0.0473684 0.00526316 0.0736842 0.0473684 0 0.0842105 0.0473684 0.00526316 0.0842105 0.0473684 0 0.0947368 0.0473684 0.00526316 0.0947368 0.0473684 0 0.105263 0.0473684 0 0.105263 0.0473684 0.00526316 0.115789 0.0473684 0 0.115789 0.0473684 0.00526316 0.126316 0.0473684 0 0.126316 0.0473684 0.00526316 0.136842 0.0473684 0 0.136842 0.0473684 0.00526316 0.147368 0.0473684 0 0.147368 0.0473684 0.00526316 0.157895 0.0473684 0 0.157895 0.0473684 0.00526316 0.168421 0.0473684 0 0.168421 0.0473684 0.00526316 0.178947 0.0473684 0 0.178947 0.
[...]
			<PointData >
				<DataArray type="Float64" Name="solution" NumberOfComponents="1" format="ascii">
     0.00000 0.00000 0.02842 0.00000 0.00000 0.00000 0.00000 0.00000 0.04215 0.00000 0.00000 0.00000 0.04644 0.00000 0.00000 0.00000 0.04249 0.00000 0.00000 0.00000 0.03341 0.00000 0.00000 0.00000 0.02321 0.00000 0.00000 0.00000 0.01474 0.00000 0.00000 0.00000 0.00896 0.00000 0.00000 0.00000 0.00534 0.00000 0.00000 0.00000 0.00000 0.00000 0.00000 0.00357 0.00000 0.00000 0.00000 0.00251 0.00000 0.00000 0.00000 0.00185 0.00000 0.00000 0.00000 0.00142 0.00000 0.00000 0.00000 0.00113 0.00000 0.00000 0.00000 0.00091 0.00000 0.00000 0.00000 0.00074 0.00000 0.00000 0.00000 0.00061 0.00000 0.00000 0.00000 0.00052 0.00000 0.00000 0.00000 0.00048 0.00000 0.04205 0.00000 0.00000 0.06493 0.00000 0.07329 0.00000 0.06862 0.00000 0.05542 0.00000 0.03977 0.00000 0.02625 0.00000 0.01663 0.00000 0.01035 0.00000 0.00000 0.00709 0.00000 0.00506 0.00000 0.00378 0.00000 0.00292 0.00000 0.00232 0.00000 0.00188 0.00000 0.00154 0.00000 0.00127 0.00000 0.00108 0.00000 0.00100 0.00000 0.04780 0.00000 0.00000 0.07593 0.00000 0.08743 0.00000 0.08348 0.00000 0.06897 0.00000 0.05089 0.00000 0.03472 0.00000 0.02281 0.00000 0.01477 0.00000 0.00000 0.01036 0.00000 0.00754 0.00000 0.00570 0.00000 0.00445 0.00000 0.00355 0.00000 0.00288 0.00000 0.00236 0.00000 0.00196 0.00000 0.00167 0.00000 0.00155 0.00000 0.04863 0.00000 0.00000 0.07888 0.00000 0.09239 0.00000 0.08976 0.00000 0.07570 0.00000 0.05728 0.00000 0.04030 0.00000 0.02739 0.00000 0.01839 0.00000 0.00000 0.01322 0.00000 0.00981 0.00000 0.00752 0.00000 0.00593 0.00000 0.00476 0.00000 0.00388 0.00000 0.00319 0.00000 0.00265 0.00000 0.00226 0.00000 0.00210 0.00000 0.04612 0.00000 0.00000 0.07613 0.00000 0.09056 0.00000 0.08943 0.00000 0.07692 0.00000 0.05964 0.00000 0.04322 0.00000 0.03036 0.00000 0.02111 0.00000 0.00000 0.01558 0.00000 0.01180 0.00000 0.00919 0.00000 0.00731 0.00000 0.00592 0.00000 0.00484 0.00000 0.00400 0.00000 0.00333 0.00000 0.00285 0.00000 0.00265 0.00000 0.04142 0.00000 0.00000 0.06949 0.00000 0.08391 0.00000 0.08424 0.00000 0.07392 0.00000 0.05875 0.00000 0.04386 0.00000 0.03186 0.00000 0.02294 0.00000 0.00000 0.01737 0.00000 0.01344 0.00000 0.01063 0.00000 0.00856 0.00000 0.00698 0.00000 0.00574 0.00000 0.00476 0.00000 0.00397 0.00000 0.00340 0.00000 0.00317 0.00000 0.03549 0.00000 0.00000 0.06052 0.00000 0.07424 0.00000 0.07585 0.00000 0.06797 0.00000 0.05546 0.00000 0.04271 0.00000 0.03209 0.00000 0.02392 0.00000 0.00000 0.01860 0.00000 0.01470 0.00000 0.01181 0.00000 0.00962 0.00000 0.00791 0.00000 0.00655 0.00000 0.00544 0.00000 0.00456 0.00000 0.00390 0.00000 0.00364 0.00000 0.02911 0.00000 0.00000 0.05056 0.00000 0.06311 0.00000 0.06573 0.00000 0.06030 0.00000 0.05061 0.00000 0.04027 0.00000 0.03133 0.00000 0.02416 0.00000 0.00000 0.01928 0.00000 0.01556 0.00000 0.01271 0.00000 0.01047 0.00000 0.00868 0.00000 0.00722 0.00000 0.00602 0.00000 0.00505 0.00000 0.00434 0.00000 0.00405 0.00000 0.02292 0.00000 0.00000 0.04066 0.00000 0.05178 0.00000 0.05514 0.00000 0.05192 0.00000 0.04494 0.00000 0.03701 0.00000 0.02982 0.00000 0.02376 0.00000 0.00000 0.01944 0.00000 0.01602 0.00000 0.01329 0.00000 0.01107 0.00000 0.00924 0.00000 0.00772 0.00000 0.00646 0.00000 0.00544 0.00000 0.00467 0.00000 0.00438 0.00000 0.00000 0.01764 0.00000 0.00000 0.03185 0.00000 0.04132 0.00000 0.04500 0.00000 0.04356 0.00000 0.03898 0.00000 0.03332 0.00000 0.02785 0.00000 0.02291 0.00000 0.01930 0.00000 0.01622 0.00000 0.01363 0.00000 0.01146 0.00000 0.00963 0.00000 0.00808 0.00000 0.00679 0.00000 0.00572 0.00000 0.00492 0.00000 0.00460 0.00000 0.00000 0.01308 0.00000 0.00000 0.02419 0.00000 0.03215 0.00000 0.03597 0.00000 0.03594 0.00000 0.03333 0.00000 0.02957 0.00000 0.02561 0.00000 0.02170 0.00000 0.01873 0.00000 0.01602 0.00000 0.01363 0.00000 0.01156 0.00000 0.00977 0.00000 0.00824 0.00000 0.00693 0.00000 0.00585 0.00000 0.00504 0.00000 0.00472 0.00000 0.00000 0.00939 0.00000 0.00000 0.01792 0.00000 0.02451 0.00000 0.02830 0.00000 0.02928 0.00000 0.02819 0.00000 0.02595 0.00000 0.02322 0.00000 0.02021 0.00000 0.01779 0.00000 0.01545 0.00000 0.01329 0.00000 0.01135 0.00000 0.00964 0.00000 0.00816 0.00000 0.00688 0.00000 0.00582 0.00000 0.00502 0.00000 0.00470 0.00000 0.00000 0.00657 0.00000 0.00000 0.01300 0.00000 0.01840 0.00000 0.02201 0.00000 0.02363 0.00000 0.02361 0.00000 0.02248 0.00000 0.02071 0.00000 0.01844 0.00000 0.01650 0.00000 0.01450 0.00000 0.01258 0.00000 0.01082 0.00000 0.00923 0.00000 0.00783 0.00000 0.00662 0.00000 0.00561 0.00000 0.00484 0.00000 0.00453 0.00000 0.00000 0.00451 0.00000 0.00000 0.00929 0.00000 0.01365 0.00000 0.01693 0.00000 0.01886 0.00000 0.01951 0.00000 0.01914 0.00000 0.01806 0.00000 0.01637 0.00000 0.01483 0.00000 0.01316 0.00000 0.01150 0.00000 0.00993 0.00000 0.00850 0.00000 0.00723 0.00000 0.00612 0.00000 0.00519 0.00000 0.00449 0.00000 0.00420 0.00000 0.00000 0.00303 0.00000 0.00000 0.00653 0.00000 0.00997 0.00000 0.01282 0.00000 0.01477 0.00000 0.01574 0.00000 0.01582 0.00000 0.01521 0.00000 0.01397 0.00000 0.01277 0.00000 0.01141 0.00000 0.01002 0.00000 0.00869 0.00000 0.00746 0.00000 0.00635 0.00000 0.00539 0.00000 0.00457 0.00000 0.00395 0.00000 0.00371 0.00000 0.00000 0.00199 0.00000 0.00000 0.00446 0.00000 0.00706 0.00000 0.00937 0.00000 0.01110 0.00000 0.01210 0.00000 0.01239 0.00000 0.01206 0.00000 0.01116 0.00000 0.01028 0.00000 0.00923 0.00000 0.00813 0.00000 0.00707 0.00000 0.00608 0.00000 0.00518 0.00000 0.00440 0.00000 0.00374 0.00000 0.00324 0.00000 0.00304 0.00000 0.00000 0.00122 0.00000 0.00000 0.00284 0.00000 0.00462 0.00000 0.00628 0.00000 0.00758 0.00000 0.00840 0.00000 0.00869 0.00000 0.00853 0.00000 0.00792 0.00000 0.00733 0.00000 0.00660 0.00000 0.00583 0.00000 0.00507 0.00000 0.00437 0.00000 0.00373 0.00000 0.00317 0.00000 0.00269 0.00000 0.00233 0.00000 0.00219 0.00000 0.00000 0.00060 0.00000 0.00000 0.00142 0.00000 0.00235 0.00000 0.00324 0.00000 0.00396 0.00000 0.00442 0.00000 0.00460 0.00000 0.00453 0.00000 0.00419 0.00000 0.00390 0.00000 0.00352 0.00000 0.00311 0.00000 0.00271 0.00000 0.00234 0.00000 0.00199 0.00000 0.00169 0.00000 0.00144 0.00000 0.00125 0.00000 0.00118 0.00000 0.00000 0.00000 0.00000 0.00000 0.00000 0.00000 0.00000 0.00000 0.00000 0.00000 0.00000 0.00000 0.00000 0.00000 0.00000 0.00000 0.00000 0.00000 0.00000 0.00000 0.00000 0.00000 0.00000 0.00000 0.00000 0.00000 0.00000 0.00000 0.00000 0.00000 0.00000 0.00000 0.00000 0.00000 0.00000 0.00000 0.00000 0.00000 0.00000 0.00000 0.00000 0.04115 0.00000 0.06326 0.00000 0.07124 0.00000 0.06655 0.00000 0.05361 0.00000 0.03835 0.00000 0.02522 0.00000 0.01592 0.00000 0.00987 0.00000 0.00000 0.00675 0.00000 0.00481 0.00000 0.00359 0.00000 0.00278 0.00000 0.00221 0.00000 0.00178 0.00000 0.00146 0.00000 0.00121 0.00000 0.00103 0.00000 0.00095 0.00000 0.06277 0.10059 0.11612 0.11100 0.09176 0.06766 0.04606 0.03013 0.01941 0.01349 0.00976 0.00735 0.00571 0.00455 0.00368 0.00302 0.00250 0.00213 0.00198 0.00000 0.07261 0.11982 0.14122 0.13769 0.11642 0.08818 0.06192 0.04186 0.02793 0.01982 0.01457 0.01109 0.00869 0.00696 0.00565 0.00464 0.00386 0.00329 0.00305 0.00000 0.07469 0.12600 0.15117 0.15005 0.12951 0.10055 0.07269 0.05073 0.03500 0.02540 0.01901 0.01467 0.01160 0.00934 0.00762 0.00628 0.00522 0.00446 0.00414 0.00000 0.07143 0.12273 0.14965 0.15109 0.13302 0.10580 0.07869 0.05666 0.04041 0.03004 0.02292 0.01794 0.01434 0.01163 0.00953 0.00787 0.00656 0.00561 0.00522 0.00000 0.06463 0.11294 0.13990 0.14367 0.12908 0.10521 0.08055 0.05987 0.04411 0.03362 0.02618 0.02080 0.01680 0.01373 0.01131 0.00937 0.00783 0.00670 0.00624 0.00000 0.05577 0.09916 0.12486 0.13055 0.11983 0.10024 0.07908 0.06071 0.04621 0.03612 0.02870 0.02316 0.01891 0.01557 0.01290 0.01073 0.00898 0.00769 0.00718 0.00000 0.04612 0.08355 0.10712 0.11425 0.10736 0.09234 0.07519 0.05967 0.04689 0.03758 0.03048 0.02497 0.02061 0.01710 0.01423 0.01187 0.00997 0.00855 0.00799 0.00000 0.03664 0.06785 0.08881 0.09688 0.09345 0.08283 0.06972 0.05721 0.04635 0.03807 0.03149 0.02617 0.02183 0.01824 0.01525 0.01277 0.01074 0.00922 0.00864 0.02851 0.00000 0.05372 0.07168 0.07998 0.07928 0.07258 0.06326 0.05372 0.04483 0.03787 0.03191 0.02687 0.02262 0.01901 0.01597 0.01340 0.01129 0.00971 0.00908 0.02141 0.00000 0.04132 0.05649 0.06475 0.06621 0.06272 0.05663 0.04970 0.04264 0.03686 0.03159 0.02692 0.02284 0.01931 0.01627 0.01370 0.01156 0.00995 0.00930 0.01562 0.00000 0.03106 0.04370 0.05168 0.05465 0.05364 0.05012 0.04533 0.03987 0.03512 0.03053 0.02628 0.02245 0.01907 0.01613 0.01360 0.01150 0.00991 0.00927 0.01114 0.00000 0.02293 0.03335 0.04081 0.04470 0.04541 0.04379 0.04068 0.03652 0.03266 0.02871 0.02492 0.02141 0.01826 0.01548 0.01308 0.01107 0.00955 0.00894 0.00780 0.00000 0.01669 0.02517 0.03190 0.03616 0.03792 0.03758 0.03567 0.03255 0.02945 0.02612 0.02281 0.01968 0.01683 0.01430 0.01211 0.01026 0.00886 0.00829 0.00537 0.00000 0.01198 0.01872 0.02453 0.02868 0.03089 0.03129 0.03019 0.02786 0.02542 0.02268 0.01990 0.01723 0.01477 0.01257 0.01065 0.00903 0.00780 0.00731 0.00361 0.00000 0.00835 0.01348 0.01818 0.02180 0.02396 0.02465 0.02405 0.02234 0.02050 0.01837 0.01616 0.01402 0.01204 0.01026 0.00870 0.00738 0.00638 0.00598 0.00227 0.00000 0.00540 0.00894 0.01232 0.01502 0.01674 0.01738 0.01706 0.01588 0.01463 0.01315 0.01159 0.01007 0.00865 0.00738 0.00626 0.00531 0.00460 0.00432 0.00114 0.00000 0.00274 0.00461 0.00642 0.00790 0.00885 0.00923 0.00908 0.00843 0.00779 0.00701 0.00619 0.00538 0.00463 0.00395 0.00335 0.00284 0.00246 0.00232 0.00000 0.00000 0.00000 0.00000 0.00000 0.00000 0.00000 0.00000 0.00000 0.00000 0.00000 0.00000 0.00000 0.00000 0.00000 0.00000 0.00000 0.00000 0.00000 0.00000 0.00000 0.00000 0.04598 0.00000 0.07243 0.00000 0.08298 0.00000 0.07885 0.00000 0.06479 0.00000 0.04749 0.00000 0.03216 0.00000 0.02097 0.00000 0.01348 0.00000 0.00000 0.00942 0.00000 0.00683 0.00000 0.00515 0.00000 0.00402 0.00000 0.00320 0.00000 0.00260 0.00000 0.00213 0.00000 0.00177 0.00000 0.00150 0.00000 0.00139 0.00000 0.07132 0.11723 0.13780 0.13402 0.11299 0.08529 0.05966 0.04018 0.02671 0.01891 0.01388 0.01056 0.00827 0.00661 0.00537 0.00441 0.00366 0.00312 0.00290 0.00000 0.08345 0.14138 0.16980 0.16854 0.14535 0.11264 0.08117 0.05638 0.03871 0.02790 0.02078 0.01597 0.01259 0.01012 0.00824 0.00678 0.00564 0.00481 0.00447 0.00000 0.08655 0.15005 0.18359 0.18562 0.16348 0.12985 0.09625 0.06891 0.04883 0.03593 0.02720 0.02116 0.01683 0.01361 0.01113 0.00917 0.00764 0.00652 0.00607 0.00000 0.08333 0.14727 0.18327 0.18861 0.16952 0.13795 0.10515 0.07757 0.05670 0.04268 0.03290 0.02594 0.02083 0.01695 0.01392 0.01151 0.00961 0.00821 0.00764 0.00000 0.07586 0.13647 0.17268 0.18089 0.16599 0.13845 0.10857 0.08258 0.06226 0.04798 0.03770 0.03015 0.02446 0.02004 0.01654 0.01372 0.01147 0.00981 0.00914 0.00000 0.06589 0.12067 0.15534 0.16581 0.15554 0.13315 0.10755 0.08440 0.06561 0.05180 0.04149 0.03366 0.02759 0.02277 0.01888 0.01571 0.01316 0.01127 0.01052 0.00000 0.05487 0.10248 0.13444 0.14649 0.14075 0.12390 0.10322 0.08362 0.06700 0.05418 0.04422 0.03640 0.03013 0.02504 0.02086 0.01742 0.01462 0.01253 0.01171 0.00000 0.04396 0.08400 0.11259 0.12558 0.12390 0.11239 0.09670 0.08087 0.06669 0.05518 0.04589 0.03828 0.03199 0.02676 0.02239 0.01874 0.01576 0.01352 0.01267 0.03452 0.00000 0.06718 0.09190 0.10493 0.10644 0.09965 0.08866 0.07659 0.06490 0.05513 0.04665 0.03938 0.03319 0.02792 0.02345 0.01969 0.01658 0.01425 0.01332 0.02624 0.00000 0.05235 0.07342 0.08617 0.09015 0.08726 0.08026 0.07148 0.06212 0.05392 0.04633 0.03954 0.03357 0.02839 0.02392 0.02013 0.01698 0.01461 0.01364 0.01944 0.00000 0.03997 0.05773 0.06991 0.07559 0.07567 0.07186 0.06579 0.05845 0.05162 0.04493 0.03870 0.03306 0.02807 0.02373 0.02000 0.01690 0.01455 0.01359 0.01413 0.00000 0.03007 0.04490 0.05622 0.06288 0.06501 0.06353 0.05956 0.05388 0.04823 0.04241 0.03678 0.03158 0.02691 0.02279 0.01925 0.01628 0.01403 0.01311 0.01013 0.00000 0.02238 0.03461 0.04482 0.05176 0.05507 0.05514 0.05268 0.04831 0.04368 0.03869 0.03374 0.02907 0.02483 0.02107 0.01781 0.01508 0.01301 0.01216 0.00717 0.00000 0.01645 0.02631 0.03515 0.04174 0.04548 0.04639 0.04493 0.04157 0.03785 0.03370 0.02949 0.02548 0.02180 0.01853 0.01567 0.01328 0.01146 0.01072 0.00496 0.00000 0.01176 0.01936 0.02654 0.03221 0.03570 0.03688 0.03603 0.03349 0.03063 0.02736 0.02400 0.02077 0.01779 0.01513 0.01281 0.01085 0.00937 0.00878 0.00320 0.00000 0.00778 0.01309 0.01827 0.02249 0.02519 0.02620 0.02570 0.02391 0.02192 0.01961 0.01722 0.01492 0.01279 0.01088 0.00922 0.00781 0.00675 0.00633 0.00164 0.00000 0.00402 0.00684 0.00964 0.01194 0.01343 0.01399 0.01373 0.01273 0.01170 0.01047 0.00920 0.00797 0.00684 0.00582 0.00493 0.00418 0.00362 0.00339 0.00000 0.00000 0.00000 0.00000 0.00000 0.00000 0.00000 0.00000 0.00000 0.00000 0.00000 0.00000 0.00000 0.00000 0.00000 0.00000 0.00000 0.00000 0.00000 0.00000 0.00000 0.00000 0.04610 0.00000 0.07390 0.00000 0.08587 0.00000 0.08279 0.00000 0.06922 0.00000 0.05184 0.00000 0.03605 0.00000 0.02421 0.00000 0.01608 0.00000 0.00000 0.01149 0.00000 0.00848 0.00000 0.00648 0.00000 0.00510 0.00000 0.00409 0.00000 0.00333 0.00000 0.00273 0.00000 0.00227 0.00000 0.00194 0.00000 0.00180 0.00000 0.07224 0.12095 0.14431 0.14249 0.12225 0.09425 0.06761 0.04681 0.03207 0.02316 0.01728 0.01330 0.01050 0.00845 0.00689 0.00567 0.00471 0.00402 0.00373 0.00000 0.08520 0.14717 0.17955 0.18104 0.15895 0.12582 0.09290 0.06625 0.04677 0.03433 0.02595 0.02016 0.01602 0.01295 0.01058 0.00872 0.00726 0.00619 0.00576 0.00000 0.08893 0.15733 0.19572 0.20117 0.18046 0.14644 0.11118 0.08162 0.05936 0.04442 0.03409 0.02679 0.02146 0.01743 0.01429 0.01181 0.00984 0.00840 0.00782 0.00000 0.08610 0.15542 0.19682 0.20608 0.18879 0.15700 0.12254 0.09263 0.06939 0.05304 0.04139 0.03293 0.02661 0.02174 0.01790 0.01483 0.01238 0.01058 0.00985 0.00000 0.07881 0.14494 0.18679 0.19926 0.18651 0.15905 0.12770 0.09943 0.07671 0.05996 0.04763 0.03839 0.03131 0.02575 0.02129 0.01769 0.01480 0.01266 0.01180 0.00000 0.06885 0.12903 0.16935 0.18426 0.17645 0.15450 0.12774 0.10252 0.08143 0.06512 0.05266 0.04302 0.03541 0.02931 0.02434 0.02028 0.01699 0.01455 0.01357 0.00000 0.05773 0.11044 0.14787 0.16442 0.16141 0.14537 0.12392 0.10255 0.08381 0.06854 0.05641 0.04668 0.03878 0.03229 0.02693 0.02250 0.01889 0.01619 0.01512 0.00000 0.04666 0.09139 0.12517 0.14261 0.14387 0.13354 0.11748 0.10022 0.08416 0.07030 0.05884 0.04928 0.04129 0.03458 0.02896 0.02425 0.02038 0.01747 0.01637 0.03698 0.00000 0.07391 0.10345 0.12082 0.12541 0.12011 0.10913 0.09595 0.08257 0.07067 0.06008 0.05087 0.04294 0.03615 0.03037 0.02549 0.02146 0.01842 0.01721 0.02848 0.00000 0.05842 0.08396 0.10089 0.10802 0.10687 0.10019 0.09059 0.07973 0.06956 0.05996 0.05125 0.04354 0.03681 0.03101 0.02608 0.02198 0.01889 0.01764 0.02147 0.00000 0.04543 0.06730 0.08347 0.09233 0.09430 0.09103 0.08436 0.07568 0.06703 0.05842 0.05032 0.04297 0.03646 0.03079 0.02593 0.02188 0.01882 0.01757 0.01596 0.00000 0.03496 0.05355 0.06865 0.07841 0.08250 0.08169 0.07726 0.07035 0.06303 0.05539 0.04799 0.04114 0.03500 0.02961 0.02497 0.02109 0.01815 0.01695 0.01176 0.00000 0.02673 0.04235 0.05606 0.06594 0.07117 0.07193 0.06910 0.06359 0.05742 0.05075 0.04415 0.03795 0.03235 0.02740 0.02313 0.01955 0.01684 0.01573 0.00860 0.00000 0.02024 0.03308 0.04504 0.05430 0.05978 0.06133 0.05953 0.05512 0.05003 0.04437 0.03869 0.03332 0.02843 0.02411 0.02036 0.01722 0.01484 0.01387 0.00616 0.00000 0.01490 0.02499 0.03479 0.04270 0.04765 0.04934 0.04816 0.04468 0.04067 0.03613 0.03155 0.02719 0.02322 0.01970 0.01664 0.01408 0.01214 0.01135 0.00411 0.00000 0.01014 0.01729 0.02442 0.03031 0.03406 0.03540 0.03460 0.03206 0.02921 0.02597 0.02268 0.01956 0.01671 0.01417 0.01198 0.01014 0.00875 0.00819 0.00216 0.00000 0.00535 0.00921 0.01309 0.01630 0.01834 0.01905 0.01858 0.01713 0.01563 0.01389 0.01213 0.01046 0.00893 0.00758 0.00641 0.00542 0.00468 0.00439 0.00000 0.00000 0.00000 0.00000 0.00000 0.00000 0.00000 0.00000 0.00000 0.00000 0.00000 0.00000 0.00000 0.00000 0.00000 0.00000 0.00000 0.00000 0.00000 0.00000 0.00000 0.00000 0.04317 0.00000 0.07017 0.00000 0.08255 0.00000 0.08066 0.00000 0.06854 0.00000 0.05240 0.00000 0.03737 0.00000 0.02584 0.00000 0.01771 0.00000 0.00000 0.01295 0.00000 0.00974 0.00000 0.00755 0.00000 0.00599 0.00000 0.00484 0.00000 0.00396 0.00000 0.00326 0.00000 0.00271 0.00000 0.00231 0.00000 0.00215 0.00000 0.06813 0.11579 0.13999 0.14017 0.12228 0.09622 0.07073 0.05033 0.03551 0.02621 0.01989 0.01552 0.01237 0.01001 0.00819 0.00676 0.00563 0.00480 0.00447 0.00000 0.08085 0.14188 0.17555 0.17964 0.16045 0.12964 0.09804 0.07177 0.05209 0.03902 0.02997 0.02358 0.01890 0.01536 0.01260 0.01041 0.00868 0.00741 0.00689 0.00000 0.08485 0.15264 0.19273 0.20121 0.18375 0.15226 0.11838 0.08914 0.06654 0.05074 0.03953 0.03141 0.02535 0.02070 0.01703 0.01411 0.01177 0.01006 0.00936 0.00000 0.08257 0.15169 0.19518 0.20776 0.19392 0.16476 0.13169 0.10203 0.07833 0.06093 0.04821 0.03874 0.03152 0.02587 0.02137 0.01773 0.01482 0.01267 0.01180 0.00000 0.07598 0.14235 0.18659 0.20257 0.19337 0.16858 0.13861 0.11054 0.08727 0.06932 0.05574 0.04533 0.03719 0.03070 0.02545 0.02117 0.01772 0.01516 0.01413 0.00000 0.06677 0.12762 0.17056 0.18910 0.18487 0.16559 0.14020 0.11514 0.09344 0.07582 0.06197 0.05100 0.04219 0.03502 0.02914 0.02431 0.02038 0.01745 0.01627 0.00000 0.05640 0.11017 0.15040 0.17063 0.17120 0.15781 0.13771 0.11647 0.09708 0.08042 0.06678 0.05559 0.04635 0.03869 0.03231 0.02700 0.02267 0.01942 0.01813 0.00000 0.04603 0.09216 0.12888 0.15002 0.15484 0.14713 0.13239 0.11524 0.09851 0.08317 0.07009 0.05896 0.04952 0.04153 0.03479 0.02914 0.02449 0.02098 0.01964 0.03689 0.00000 0.07552 0.10814 0.12924 0.13735 0.13464 0.12494 0.11182 0.09768 0.08425 0.07198 0.06112 0.05165 0.04350 0.03654 0.03066 0.02580 0.02213 0.02066 0.02887 0.00000 0.06075 0.08946 0.11014 0.12077 0.12214 0.11668 0.10707 0.09534 0.08361 0.07226 0.06183 0.05252 0.04439 0.03737 0.03140 0.02645 0.02270 0.02119 0.02223 0.00000 0.04832 0.07344 0.09335 0.10565 0.11008 0.10793 0.10115 0.09148 0.08122 0.07082 0.06096 0.05199 0.04405 0.03715 0.03125 0.02634 0.02263 0.02111 0.01700 0.00000 0.03826 0.06010 0.07888 0.09200 0.09842 0.09861 0.09395 0.08594 0.07697 0.06752 0.05836 0.04992 0.04237 0.03578 0.03012 0.02540 0.02183 0.02037 0.01298 0.00000 0.03023 0.04904 0.06630 0.07937 0.08674 0.08834 0.08514 0.07844 0.07063 0.06219 0.05389 0.04616 0.03923 0.03315 0.02792 0.02355 0.02025 0.01891 0.00988 0.00000 0.02372 0.03956 0.05482 0.06697 0.07434 0.07653 0.07424 0.06860 0.06193 0.05462 0.04738 0.04062 0.03453 0.02919 0.02459 0.02075 0.01785 0.01667 0.00737 0.00000 0.01809 0.03082 0.04347 0.05384 0.06032 0.06243 0.06070 0.05603 0.05062 0.04465 0.03874 0.03321 0.02824 0.02387 0.02011 0.01697 0.01461 0.01365 0.00511 0.00000 0.01270 0.02190 0.03122 0.03894 0.04377 0.04532 0.04400 0.04045 0.03653 0.03219 0.02791 0.02392 0.02033 0.01719 0.01448 0.01222 0.01053 0.00984 0.00277 0.00000 0.00688 0.01192 0.01704 0.02127 0.02387 0.02462 0.02379 0.02172 0.01960 0.01725 0.01494 0.01280 0.01088 0.00919 0.00775 0.00654 0.00564 0.00528 0.00000 0.00000 0.00000 0.00000 0.00000 0.00000 0.00000 0.00000 0.00000 0.00000 0.00000 0.00000 0.00000 0.00000 0.00000 0.00000 0.00000 0.00000 0.00000 0.00000 0.00000 0.00000 0.03830 0.00000 0.06305 0.00000 0.07508 0.00000 0.07434 0.00000 0.06421 0.00000 0.05012 0.00000 0.03667 0.00000 0.02611 0.00000 0.01847 0.00000 0.00000 0.01382 0.00000 0.01061 0.00000 0.00834 0.00000 0.00669 0.00000 0.00544 0.00000 0.00447 0.00000 0.00369 0.00000 0.00308 0.00000 0.00263 0.00000 0.00245 0.00000 0.06084 0.10480 0.12833 0.13030 0.11558 0.09286 0.06998 0.05120 0.03720 0.02808 0.02172 0.01717 0.01382 0.01126 0.00926 0.00766 0.00639 0.00546 0.00508 0.00000 0.07260 0.12924 0.16210 0.16833 0.15298 0.12623 0.09784 0.07357 0.05490 0.04200 0.03283 0.02615 0.02116 0.01730 0.01425 0.01181 0.00986 0.00842 0.00784 0.00000 0.07658 0.13988 0.17921 0.19004 0.17674 0.1496