<?xml version="1.0"?>
<VTKFile type="UnstructuredGrid" version="0.1" byte_order="LittleEndian">
	<UnstructuredGrid>
		<Piece NumberOfPoints="13671" NumberOfCells="72000">
			<Points>
				<DataArray type="Float32" NumberOfComponents="3" format="ascii">
0 0 0.005 0 0.005 0.005 0.00666667 0.005 0.005 0 0 0 0 0.005 0 0.00666667 0.005 0 0.00666667 0 0.005 0.00666667 0 0 0.0133333 0.005 0.005 0.0133333 0.005 0 0.0133333 0 0.005 0.0133333 0 0 0.02 0.005 0.005 0.02 0.005 0 0.02 0 0.005 0.02 0 0 0.0266667 0.005 0.005 0.0266667 0.005 0 0.0266667 0 0.005 0.0266667 0 0 0.0333333 0.005 0.005 0.0333333 0.005 0 0.0333333 0 0.005 0.0333333 0 0 0.04 0.005 0.005 0.04 0.005 0 0.04 0 0.005 0.04 0 0 0.0466667 0.005 0.005 0.0466667 0.005 0 0.0466667 0 0.005 0.0466667 0 0 0.0533333 0.005 0.005 0.0533333 0.005 0 0.0533333 0 0.005 0.0533333 0 0 0.06 0.005 0.005 0.06 0.005 0 0.06 0 0.005 0.06 0 0 0.0666667 0.005 0.005 0.0666667 0.005 0 0.0666667 0 0.005 0.0666667 0 0 0.0733333 0.005 0.005 0.0733333 0.005 0 0.0733333 0 0.005 0.0733333 0 0 0.08 0.005 0.005 0.08 0.005 0 0.08 0 0.005 0.08 0 0 0.0866667 0.005 0.005 0.0866667 0.005 0 0.0866667 0 0.005 0.0866667 0 0 0.0933333 0.005 0.005 0.0933333 0.005 0 0.0933333 0 0.005 0.0933333 0 0 0.1 0.005 0.005 0.1 0.005 0 0.1 0 0.005 0.1 0 0 0.106667 0 0 0.106667 0 0.005 0.106667 0.005 0 0.106667 0.005 0.005 0.113333 0 0 0.113333 0 0.005 0.113333 0.005 0 0.113333 0.005 0.005 0.12 0 0 0.12 0 0.005 0.12 0.005 0 0.12 0.005 0.005 0.126667 0 0 0.126667 0 0.005 0.126667 0.005 0 0.126667 0.005 0.005 0.133333 0 0 0.133333 0 0.005 0.133333 0.005 0 0.133333 0.005 0.005 0.14 0 0 0.14 0 0.005 0.14 0.005 0 0.14 0.005 0.005 0.146667 0 0 0.146667 0 0.005 0.146667 0.005 0 0.146667 0.005 0.005 0.153333 0 0 0.153333 0 0.005 0.153333 0.005 0 0.153333 0.005 0.005 0.16 0 0 0.16 0 0.005 0.16 0.005 0 0.16 0.005 0.005 0.166667 0 0 0.166667 0 0.005 0.166667 0.005 0 0.166667 0.005 0.005 0.173333 0 0 0.173333 0 0.005 0.173333 0.005 0 0.173333 0.005 0.005 0.18 0 0 0.18 0 0.005 0.18 0.005 0 0.18 0.005 0.005 0.186667 0 0 0.186667 0 0.005 0.186667 0.005 0 0.186667 0.005 0.005 0.193333 0 0 0.193333 0 0.005 0.193333 0.005 0 0.193333 0.005 0.005 0.2 0 0 0.2 0 0.005 0.2 0.005 0 0.2 0.005 0.005 0 0.01 0.005 0.00666667 0.01 0.005 0 0.01 0 0.00666667 0.01 0 0.0133333 0.01 0.005 0.0133333 0.01 0 0.02 0.01 0.005 0.02 0.01 0 0.0266667 0.01 0.005 0.0266667 0.01 0 0.0333333 0.01 0.005 0.0333333 0.01 0 0.04 0.01 0.005 0.04 0.01 0 0.0466667 0.01 0.005 0.0466667 0.01 0 0.0533333 0.01 0.005 0.0533333 0.01 0 0.06 0.01 0.005 0.06 0.01 0 0.0666667 0.01 0.005 0.0666667 0.01 0 0.0733333 0.01 0.005 0.0733333 0.01 0 0.08 0.01 0.005 0.08 0.01 0 0.0866667 0.01 0.005 0.0866667 0.01 0 0.0933333 0.01 0.005 0.0933333 0.01 0 0.1 0.01 0.005 0.1 0.01 0 0.106667 0.01 0 0.106667 0.01 0.005 0.113333 0.01 0 0.113333 0.01 0.005 0.12 0.01 0 0.12 0.01 0.005 0.126667 0.01 0 0.126667 0.01 0.005 0.133333 0.01 0 0.133333 0.01 0.005 0.14 0.01 0 0.14 0.01 0.005 0.146667 0.01 0 0.146667 0.01 0.005 0.153333 0.01 0 0.153333 0.01 0.005 0.16 0.01 0 0.16 0.01 0.005 0.166667 0.01 0 0.166667 0.01 0.005 0.173333 0.01 0 0.173333 0.01 0.005 0.18 0.01 0 0.18 0.01 0.005 0.186667 0.01 0 0.186667 0.01 0.005 0.193333 0.01 0 0.193333 0.01 0.005 0.2 0.01 0 0.2 0.01 0.005 0 0.015 0.005 0.00666667 0.015 0.005 0 0.015 0 0.00666667 0.015 0 0.0133333 0.015 0.005 0.0133333 0.015 0 0.02 0.015 0.005 0.02 0.015 0 0.0266667 0.015 0.005 0.0266667 0.015 0 0.0333333 0.015 0.005 0.0333333 0.015 0 0.04 0.015 0.005 0.04 0.015 0 0.0466667 0.015 0.005 0.0466667 0.015 0 0.0533333 0.015 0.005 0.0533333 0.015 0 0.06 0.015 0.005 0.06 0.015 0 0.0666667 0.015 0.005 0.0666667 0.015 0 0.0733333 0.015 0.005 0.0733333 0.015 0 0.08 0.015 0.005 0.08 0.015 0 0.0866667 0.015 0.005 0.0866667 0.015 0 0.0933333 0.015 0.005 0.0933333 0.015 0 0.1 0.015 0.005 0.1 0.015 0 0.106667 0.015 0 0.106667 0.015 0.005 0.113333 0.015 0 0.113333 0.015 0.005 0.12 0.015 0 0.12 0.015 0.005 0.126667 0.015 0 0.126667 0.015 0.005 0.133333 0.015 0 0.133333 0.015 0.005 0.14 0.015 0 0.14 0.015 0.005 0.146667 0.015 0 0.146667 0.015 0.005 0.153333 0.015 0 0.153333 0.015 0.005 0.16 0.015 0 0.16 0.015 0.005 0.166667 0.015 0 0.166667 0.015 0.005 0.173333 0.015 0 0.173333 0.015 0.005 0.18 0.015 0 0.18 0.015 0.005 0.186667 0.015 0 0.186667 0.015 0.005 0.193333 0.015 0 0.193333 0.015 0.005 0.2 0.015 0 0.2 0.015 0.005 0 0.02 0.005 0.00666667 0.02 0.005 0 0.02 0 0.00666667 0.02 0 0.0133333 0.02 0.005 0.0133333 0.02 0 0.02 0.02 0.005 0.02 0.02 0 0.0266667 0.02 0.005 0.0266667 0.02 0 0.0333333 0.02 0.005 0.0333333 0.02 0 0.04 0.02 0.005 0.04 0.02 0 0.0466667 0.02 0.005 0.0466667 0.02 0 0.0533333 0.02 0.005 0.0533333 0.02 0 0.06 0.02 0.005 0.06 0.02 0 0.0666667 0.02 0.005 0.0666667 0.02 0 0.0733333 0.02 0.005 0.0733333 0.02 0 0.08 0.02 0.005 0.08 0.02 0 0.0866667 0.02 0.005 0.0866667 0.02 0 0.0933333 0.02 0.005 0.0933333 0.02 0 0.1 0.02 0.005 0.1 0.02 0 0.106667 0.02 0 0.106667 0.02 0.005 0.113333 0.02 0 0.113333 0.02 0.005 0.12 0.02 0 0.12 0.02 0.005 0.126667 0.02 0 0.126667 0.02 0.005 0.133333 0.02 0 0.133333 0.02 0.005 0.14 0.02 0 0.14 0.02 0.005 0.146667 0.02 0 0.146667 0.02 0.005 0.153333 0.02 0 0.153333 0.02 0.005 0.16 0.02 0 0.16 0.02 0.005 0.166667 0.02 0 0.166667 0.02 0.005 0.173333 0.02 0 0.173333 0.02 0.005 0.18 0.02 0 0.18 0.02 0.005 0.186667 0.02 0 0.186667 0.02 0.005 0.193333 0.02 0 0.193333 0.02 0.005 0.2 0.02 0 0.2 0.02 0.005 0 0.025 0.005 0.00666667 0.025 0.005 0 0.025 0 0.00666667 0.025 0 0.0133333 0.025 0.005 0.0133333 0.025 0 0.02 0.025 0.005 0.02 0.025 0 0.0266667 0.025 0.005 0.0266667 0.025 0 0.0333333 0.025 0.005 0.0333333 0.025 0 0.04 0.025 0.005 0.04 0.025 0 0.0466667 0.025 0.005 0.0466667 0.025 0 0.0533333 0.025 0.005 0.0533333 0.025 0 0.06 0.025 0.005 0.06 0.025 0 0.0666667 0.025 0.005 0.0666667 0.025 0 0.0733333 0.025 0.005 0.0733333 0.025 0 0.08 0.025 0.005 0.08 0.025 0 0.0866667 0.025 0.005 0.0866667 0.025 0 0.0933333 0.025 0.005 0.0933333 0.025 0 0.1 0.025 0.005 0.1 0.025 0 0.106667 0.025 0 0.106667 0.025 0.005 0.113333 0.025 0 0.113333 0.025 0.005 0.12 0.025 0 0.12 0.025 0.005 0.126667 0.025 0 0.126667 0.025 0.005 0.133333 0.025 0 0.133333 0.025 0.005 0.14 0.025 0 0.14 0.025 0.005 0.146667 0.025 0 0.146667 0.025 0.005 0.153333 0.025 0 0.153333 0.025 0.005 0.16 0.025 0 0.16 0.025 0.005 0.166667 0.025 0 0.166667 0.025 0.005 0.173333 0.025 0 0.173333 0.025 0.005 0.18 0.025 0 0.18 0.025 0.005 0.186667 0.025 0 0.186667 0.025 0.005 0.193333 0.025 0 0.193333 0.025 0.005 0.2 0.025 0 0.2 0.025 0.005 0 0.03 0.005 0.00666667 0.03 0.005 0 0.03 0 0.00666667 0.03 0 0.0133333 0.03 0.005 0.0133333 0.03 0 0.02 0.03 0.005 0.02 0.03 0 0.0266667 0.03 0.005 0.0266667 0.03 0 0.0333333 0.03 0.005 0.0333333 0.03 0 0.04 0.03 0.005 0.04 0.03 0 0.0466667 0.03 0.005 0.0466667 0.03 0 0.0533333 0.03 0.005 0.0533333 0.03 0 0.06 0.03 0.005 0.06 0.03 0 0.0666667 0.03 0.005 0.0666667 0.03 0 0.0733333 0.03 0.005 0.0733333 0.03 0 0.08 0.03 0.005 0.08 0.03 0 0.0866667 0.03 0.005 0.0866667 0.03 0 0.0933333 0.03 0.005 0.0933333 0.03 0 0.1 0.03 0.005 0.1 0.03 0 0.106667 0.03 0 0.106667 0.03 0.005 0.113333 0.03 0 0.113333 0.03 0.005 0.12 0.03 0 0.12 0.03 0.005 0.126667 0.03 0 0.126667 0.03 0.005 0.133333 0.03 0 0.133333 0.03 0.005 0.14 0.03 0 0.14 0.03 0.005 0.146667 0.03 0 0.146667 0.03 0.005 0.153333 0.03 0 0.153333 0.03 0.005 0.16 0.03 0 0.16 0.03 0.005 0.166667 0.03 0 0.166667 0.03 0.005 0.173333 0.03 0 0.173333 0.03 0.005 0.18 0.03 0 0.18 0.03 0.005 0.186667 0.03 0 0.186667 0.03 0.005 0.193333 0.03 0 0.193333 0.03 0.005 0.2 0.03 0 0.2 0.03 0.005 0 0.035 0.005 0.00666667 0.035 0.005 0 0.035 0 0.00666667 0.035 0 0.0133333 0.035 0.005 0.0133333 0.035 0 0.02 0.035 0.005 0.02 0.035 0 0.0266667 0.035 0.005 0.0266667 0.035 0 0.0333333 0.035 0.005 0.0333333 0.035 0 0.04 0.035 0.005 0.04 0.035 0 0.0466667 0.035 0.005 0.0466667 0.035 0 0.0533333 0.035 0.005 0.0533333 0.035 0 0.06 0.035 0.005 0.06 0.035 0 0.0666667 0.035 0.005 0.0666667 0.035 0 0.0733333 0.035 0.005 0.0733333 0.035 0 0.08 0.035 0.005 0.08 0.035 0 0.0866667 0.035 0.005 0.0866667 0.035 0 0.0933333 0.035 0.005 0.0933333 0.035 0 0.1 0.035 0.005 0.1 0.035 0 0.106667 0.035 0 0.106667 0.035 0.005 0.113333 0.035 0 0.113333 0.035 0.005 0.12 0.035 0 0.12 0.035 0.005 0.126667 0.035 0 0.126667 0.035 0.005 0.133333 0.035 0 0.133333 0.035 0.005 0.14 0.035 0 0.14 0.035 0.005 0.146667 0.035 0 0.146667 0.035 0.005 0.153333 0.035 0 0.153333 0.035 0.005 0.16 0.035 0 0.16 0.035 0.005 0.166667 0.035 0 0.166667 0.035 0.005 0.173333 0.035 0 0.173333 0.035 0.005 0.18 0.035 0 0.18 0.035 0.005 0.186667 0.035 0 0.186667 0.035 0.005 0.193333 0.035 0 0.193333 0.035 0.005 0.2 0.035 0 0.2 0.035 0.005 0 0.04 0.005 0.00666667 0.04 0.005 0 0.04 0 0.00666667 0.04 0 0.0133333 0.04 0.005 0.0133333 0.04 0 0.02 0.04 0.005 0.02 0.04 0 0.0266667 0.04 0.005 0.0266667 0.04 0 0.0333333 0.04 0.005 0.0333333 0.04 0 0.04 0.04 0.005 0.04 0.04 0 0.0466667 0.04 0.005 0.0466667 0.04 0 0.0533333 0.04 0.005 0.0533333 0.04 0 0.06 0.04 0.005 0.06 0.04 0 0.0666667 0.04 0.005 0.0666667 0.04 0 0.0733333 0.04 0.005 0.0733333 0.04 0 0.08 0.04 0.005 0.08 0.04 0 0.0866667 0.04 0.005 0.0866667 0.04 0 0.0933333 0.04 0.005 0.0933333 0.04 0 0.1 0.04 0.005 0.1 0.04 0 0.106667 0.04 0 0.106667 0.04 0.005 0.113333 0.04 0 0.113333 0.04 0.005 0.12 0.04 0 0.12 0.04 0.005 0.126667 0.04 0 0.126667 0.04 0.005 0.133333 0.04 0 0.133333 0.04 0.005 0.14 0.04 0 0.14 0.04 0.005 0.146667 0.04 0 0.146667 0.04 0.005 0.153333 0.04 0 0.153333 0.04 0.005 0.16 0.04 0 0.16 0.04 0.005 0.166667 0.04 0 0.166667 0.04 0.005 0.173333 0.04 0 0.173333 0.04 0.005 0.18 0.04 0 0.18 0.04 0.005 0.186667 0.04 0 0.186667 0.04 0.005 0.193333 0.04 0 0.193333 0.04 0.005 0.2 0.04 0 0.2 0.04 0.005 0 0.045 0.005 0.00666667 0.045 0.005 0 0.045 0 0.00666667 0.045 0 0.0133333 0.045 0.005 0.0133333 0.045 0 0.02 0.045 0.005 0.02 0.045 0 0.0266667 0.045 0.005 0.0266667 0.045 0 0.0333333 0.045 0.005 0.0333333 0.045 0 0.04 0.045 0.005 0.04 0.045 0 0.0466667 0.045 0.005 0.0466667 0.045 0 0.0533333 0.045 0.005 0.0533333 0.045 0 
[...]
			<PointData >
				<DataArray type="Float64" Name="solution" NumberOfComponents="1" format="ascii">
     0.00000 0.00000 0.01972 0.00000 0.00000 0.00000 0.00000 0.00000 0.03138 0.00000 0.00000 0.00000 0.03894 0.00000 0.00000 0.00000 0.04295 0.00000 0.00000 0.00000 0.04354 0.00000 0.00000 0.00000 0.04108 0.00000 0.00000 0.00000 0.03635 0.00000 0.00000 0.00000 0.03037 0.00000 0.00000 0.00000 0.02412 0.00000 0.00000 0.00000 0.01838 0.00000 0.00000 0.00000 0.01358 0.00000 0.00000 0.00000 0.00986 0.00000 0.00000 0.00000 0.00714 0.00000 0.00000 0.00000 0.00521 0.00000 0.00000 0.00000 0.00382 0.00000 0.00000 0.00000 0.00000 0.00000 0.00000 0.00299 0.00000 0.00000 0.00000 0.00239 0.00000 0.00000 0.00000 0.00195 0.00000 0.00000 0.00000 0.00162 0.00000 0.00000 0.00000 0.00137 0.00000 0.00000 0.00000 0.00118 0.00000 0.00000 0.00000 0.00102 0.00000 0.00000 0.00000 0.00089 0.00000 0.00000 0.00000 0.00078 0.00000 0.00000 0.00000 0.00068 0.00000 0.00000 0.00000 0.00061 0.00000 0.00000 0.00000 0.00054 0.00000 0.00000 0.00000 0.00049 0.00000 0.00000 0.00000 0.00045 0.00000 0.00000 0.00000 0.00043 0.00000 0.02864 0.00000 0.00000 0.04753 0.00000 0.06033 0.00000 0.06763 0.00000 0.06951 0.00000 0.06652 0.00000 0.05978 0.00000 0.05083 0.00000 0.04119 0.00000 0.03210 0.00000 0.02432 0.00000 0.01812 0.00000 0.01345 0.00000 0.01005 0.00000 0.00755 0.00000 0.00000 0.00598 0.00000 0.00482 0.00000 0.00396 0.00000 0.00332 0.00000 0.00282 0.00000 0.00242 0.00000 0.00210 0.00000 0.00183 0.00000 0.00161 0.00000 0.00142 0.00000 0.00125 0.00000 0.00112 0.00000 0.00101 0.00000 0.00093 0.00000 0.00089 0.00000 0.03235 0.00000 0.00000 0.05508 0.00000 0.07111 0.00000 0.08076 0.00000 0.08399 0.00000 0.08134 0.00000 0.07407 0.00000 0.06392 0.00000 0.05270 0.00000 0.04187 0.00000 0.03240 0.00000 0.02470 0.00000 0.01876 0.00000 0.01432 0.00000 0.01098 0.00000 0.00000 0.00882 0.00000 0.00719 0.00000 0.00596 0.00000 0.00502 0.00000 0.00428 0.00000 0.00369 0.00000 0.00321 0.00000 0.00280 0.00000 0.00246 0.00000 0.00218 0.00000 0.00193 0.00000 0.00172 0.00000 0.00155 0.00000 0.00143 0.00000 0.00138 0.00000 0.03296 0.00000 0.00000 0.05707 0.00000 0.07465 0.00000 0.08570 0.00000 0.09004 0.00000 0.08813 0.00000 0.08120 0.00000 0.07101 0.00000 0.05945 0.00000 0.04807 0.00000 0.03792 0.00000 0.02952 0.00000 0.02290 0.00000 0.01785 0.00000 0.01397 0.00000 0.00000 0.01137 0.00000 0.00938 0.00000 0.00785 0.00000 0.00666 0.00000 0.00572 0.00000 0.00495 0.00000 0.00431 0.00000 0.00378 0.00000 0.00333 0.00000 0.00295 0.00000 0.00261 0.00000 0.00233 0.00000 0.00210 0.00000 0.00194 0.00000 0.00187 0.00000 0.03149 0.00000 0.00000 0.05521 0.00000 0.07300 0.00000 0.08460 0.00000 0.08972 0.00000 0.08868 0.00000 0.08261 0.00000 0.07317 0.00000 0.06216 0.00000 0.05111 0.00000 0.04108 0.00000 0.03263 0.00000 0.02584 0.00000 0.02056 0.00000 0.01641 0.00000 0.00000 0.01356 0.00000 0.01132 0.00000 0.00958 0.00000 0.00819 0.00000 0.00707 0.00000 0.00615 0.00000 0.00538 0.00000 0.00473 0.00000 0.00418 0.00000 0.00370 0.00000 0.00329 0.00000 0.00294 0.00000 0.00265 0.00000 0.00245 0.00000 0.00236 0.00000 0.02861 0.00000 0.00000 0.05072 0.00000 0.06770 0.00000 0.07917 0.00000 0.08472 0.00000 0.08456 0.00000 0.07964 0.00000 0.07144 0.00000 0.06158 0.00000 0.05149 0.00000 0.04217 0.00000 0.03417 0.00000 0.02763 0.00000 0.02243 0.00000 0.01826 0.00000 0.00000 0.01531 0.00000 0.01296 0.00000 0.01107 0.00000 0.00955 0.00000 0.00830 0.00000 0.00726 0.00000 0.00638 0.00000 0.00563 0.00000 0.00498 0.00000 0.00442 0.00000 0.00394 0.00000 0.00352 0.00000 0.00318 0.00000 0.00294 0.00000 0.00284 0.00000 0.02488 0.00000 0.00000 0.04458 0.00000 0.06007 0.00000 0.07088 0.00000 0.07656 0.00000 0.07720 0.00000 0.07355 0.00000 0.06685 0.00000 0.05851 0.00000 0.04978 0.00000 0.04157 0.00000 0.03438 0.00000 0.02838 0.00000 0.02352 0.00000 0.01952 0.00000 0.00000 0.01662 0.00000 0.01425 0.00000 0.01231 0.00000 0.01071 0.00000 0.00938 0.00000 0.00825 0.00000 0.00728 0.00000 0.00645 0.00000 0.00572 0.00000 0.00509 0.00000 0.00453 0.00000 0.00406 0.00000 0.00367 0.00000 0.00339 0.00000 0.00328 0.00000 0.02078 0.00000 0.00000 0.03766 0.00000 0.05126 0.00000 0.06107 0.00000 0.06663 0.00000 0.06793 0.00000 0.06553 0.00000 0.06042 0.00000 0.05376 0.00000 0.04659 0.00000 0.03969 0.00000 0.03353 0.00000 0.02828 0.00000 0.02391 0.00000 0.02023 0.00000 0.00000 0.01748 0.00000 0.01518 0.00000 0.01326 0.00000 0.01164 0.00000 0.01026 0.00000 0.00907 0.00000 0.00805 0.00000 0.00715 0.00000 0.00636 0.00000 0.00567 0.00000 0.00506 0.00000 0.00454 0.00000 0.00410 0.00000 0.00379 0.00000 0.00367 0.00000 0.01671 0.00000 0.00000 0.03067 0.00000 0.04221 0.00000 0.05084 0.00000 0.05610 0.00000 0.05790 0.00000 0.05663 0.00000 0.05305 0.00000 0.04805 0.00000 0.04247 0.00000 0.03696 0.00000 0.03191 0.00000 0.02749 0.00000 0.02371 0.00000 0.02045 0.00000 0.00000 0.01792 0.00000 0.01576 0.00000 0.01391 0.00000 0.01231 0.00000 0.01093 0.00000 0.00972 0.00000 0.00865 0.00000 0.00771 0.00000 0.00688 0.00000 0.00614 0.00000 0.00549 0.00000 0.00493 0.00000 0.00446 0.00000 0.00413 0.00000 0.00400 0.00000 0.01297 0.00000 0.00000 0.02414 0.00000 0.03365 0.00000 0.04104 0.00000 0.04586 0.00000 0.04800 0.00000 0.04769 0.00000 0.04547 0.00000 0.04199 0.00000 0.03790 0.00000 0.03371 0.00000 0.02976 0.00000 0.02619 0.00000 0.02303 0.00000 0.02022 0.00000 0.00000 0.01796 0.00000 0.01598 0.00000 0.01425 0.00000 0.01271 0.00000 0.01136 0.00000 0.01015 0.00000 0.00907 0.00000 0.00811 0.00000 0.00725 0.00000 0.00649 0.00000 0.00581 0.00000 0.00522 0.00000 0.00473 0.00000 0.00438 0.00000 0.00425 0.00000 0.00000 0.00979 0.00000 0.00000 0.01851 0.00000 0.02615 0.00000 0.03232 0.00000 0.03664 0.00000 0.03894 0.00000 0.03936 0.00000 0.03826 0.00000 0.03609 0.00000 0.03332 0.00000 0.03033 0.00000 0.02738 0.00000 0.02461 0.00000 0.02206 0.00000 0.01966 0.00000 0.01774 0.00000 0.01596 0.00000 0.01436 0.00000 0.01290 0.00000 0.01159 0.00000 0.01040 0.00000 0.00933 0.00000 0.00837 0.00000 0.00749 0.00000 0.00671 0.00000 0.00602 0.00000 0.00541 0.00000 0.00491 0.00000 0.00454 0.00000 0.00441 0.00000 0.00000 0.00716 0.00000 0.00000 0.01378 0.00000 0.01981 0.00000 0.02487 0.00000 0.02866 0.00000 0.03102 0.00000 0.03197 0.00000 0.03174 0.00000 0.03062 0.00000 0.02893 0.00000 0.02695 0.00000 0.02486 0.00000 0.02279 0.00000 0.02077 0.00000 0.01879 0.00000 0.01716 0.00000 0.01560 0.00000 0.01414 0.00000 0.01279 0.00000 0.01155 0.00000 0.01041 0.00000 0.00937 0.00000 0.00842 0.00000 0.00755 0.00000 0.00678 0.00000 0.00608 0.00000 0.00547 0.00000 0.00497 0.00000 0.00460 0.00000 0.00446 0.00000 0.00000 0.00509 0.00000 0.00000 0.01002 0.00000 0.01468 0.00000 0.01879 0.00000 0.02207 0.00000 0.02437 0.00000 0.02566 0.00000 0.02606 0.00000 0.02573 0.00000 0.02487 0.00000 0.02368 0.00000 0.02228 0.00000 0.02079 0.00000 0.01925 0.00000 0.01763 0.00000 0.01626 0.00000 0.01491 0.00000 0.01361 0.00000 0.01238 0.00000 0.01123 0.00000 0.01015 0.00000 0.00916 0.00000 0.00825 0.00000 0.00741 0.00000 0.00666 0.00000 0.00598 0.00000 0.00539 0.00000 0.00489 0.00000 0.00453 0.00000 0.00439 0.00000 0.00000 0.00353 0.00000 0.00000 0.00714 0.00000 0.01070 0.00000 0.01398 0.00000 0.01678 0.00000 0.01894 0.00000 0.02041 0.00000 0.02120 0.00000 0.02141 0.00000 0.02115 0.00000 0.02054 0.00000 0.01968 0.00000 0.01864 0.00000 0.01748 0.00000 0.01618 0.00000 0.01505 0.00000 0.01389 0.00000 0.01275 0.00000 0.01165 0.00000 0.01060 0.00000 0.00961 0.00000 0.00869 0.00000 0.00784 0.00000 0.00706 0.00000 0.00634 0.00000 0.00570 0.00000 0.00514 0.00000 0.00467 0.00000 0.00433 0.00000 0.00420 0.00000 0.00000 0.00241 0.00000 0.00000 0.00500 0.00000 0.00769 0.00000 0.01028 0.00000 0.01263 0.00000 0.01458 0.00000 0.01606 0.00000 0.01705 0.00000 0.01759 0.00000 0.01771 0.00000 0.01750 0.00000 0.01701 0.00000 0.01632 0.00000 0.01545 0.00000 0.01442 0.00000 0.01350 0.00000 0.01253 0.00000 0.01155 0.00000 0.01059 0.00000 0.00966 0.00000 0.00878 0.00000 0.00795 0.00000 0.00718 0.00000 0.00647 0.00000 0.00582 0.00000 0.00524 0.00000 0.00472 0.00000 0.00429 0.00000 0.00398 0.00000 0.00386 0.00000 0.00000 0.00161 0.00000 0.00000 0.00345 0.00000 0.00544 0.00000 0.00745 0.00000 0.00935 0.00000 0.01103 0.00000 0.01241 0.00000 0.01344 0.00000 0.01411 0.00000 0.01443 0.00000 0.01446 0.00000 0.01422 0.00000 0.01376 0.00000 0.01313 0.00000 0.01232 0.00000 0.01159 0.00000 0.01080 0.00000 0.00999 0.00000 0.00918 0.00000 0.00839 0.00000 0.00764 0.00000 0.00693 0.00000 0.00626 0.00000 0.00565 0.00000 0.00509 0.00000 0.00458 0.00000 0.00413 0.00000 0.00375 0.00000 0.00348 0.00000 0.00338 0.00000 0.00000 0.00105 0.00000 0.00000 0.00232 0.00000 0.00374 0.00000 0.00523 0.00000 0.00670 0.00000 0.00805 0.00000 0.00921 0.00000 0.01013 0.00000 0.01079 0.00000 0.01117 0.00000 0.01130 0.00000 0.01120 0.00000 0.01092 0.00000 0.01047 0.00000 0.00985 0.00000 0.00930 0.00000 0.00869 0.00000 0.00806 0.00000 0.00742 0.00000 0.00679 0.00000 0.00619 0.00000 0.00562 0.00000 0.00508 0.00000 0.00459 0.00000 0.00413 0.00000 0.00372 0.00000 0.00336 0.00000 0.00305 0.00000 0.00283 0.00000 0.00275 0.00000 0.00000 0.00064 0.00000 0.00000 0.00145 0.00000 0.00238 0.00000 0.00339 0.00000 0.00441 0.00000 0.00538 0.00000 0.00623 0.00000 0.00693 0.00000 0.00744 0.00000 0.00777 0.00000 0.00791 0.00000 0.00788 0.00000 0.00771 0.00000 0.00741 0.00000 0.00698 0.00000 0.00661 0.00000 0.00618 0.00000 0.00574 0.00000 0.00529 0.00000 0.00485 0.00000 0.00442 0.00000 0.00402 0.00000 0.00364 0.00000 0.00328 0.00000 0.00296 0.00000 0.00266 0.00000 0.00240 0.00000 0.00219 0.00000 0.00203 0.00000 0.00197 0.00000 0.00000 0.00032 0.00000 0.00000 0.00072 0.00000 0.00120 0.00000 0.00172 0.00000 0.00226 0.00000 0.00277 0.00000 0.00323 0.00000 0.00362 0.00000 0.00390 0.00000 0.00409 0.00000 0.00417 0.00000 0.00416 0.00000 0.00408 0.00000 0.00392 0.00000 0.00369 0.00000 0.00350 0.00000 0.00328 0.00000 0.00305 0.00000 0.00281 0.00000 0.00258 0.00000 0.00235 0.00000 0.00214 0.00000 0.00194 0.00000 0.00175 0.00000 0.00158 0.00000 0.00142 0.00000 0.00128 0.00000 0.00117 0.00000 0.00108 0.00000 0.00105 0.00000 0.00000 0.00000 0.00000 0.00000 0.00000 0.00000 0.00000 0.00000 0.00000 0.00000 0.00000 0.00000 0.00000 0.00000 0.00000 0.00000 0.00000 0.00000 0.00000 0.00000 0.00000 0.00000 0.00000 0.00000 0.00000 0.00000 0.00000 0.00000 0.00000 0.00000 0.00000 0.00000 0.00000 0.00000 0.00000 0.00000 0.00000 0.00000 0.00000 0.00000 0.00000 0.00000 0.00000 0.00000 0.00000 0.00000 0.00000 0.00000 0.00000 0.00000 0.00000 0.00000 0.00000 0.00000 0.00000 0.00000 0.00000 0.00000 0.00000 0.00000 0.00000 0.00000 0.00000 0.02808 0.00000 0.04643 0.00000 0.05881 0.00000 0.06584 0.00000 0.06759 0.00000 0.06460 0.00000 0.05798 0.00000 0.04922 0.00000 0.03982 0.00000 0.03098 0.00000 0.02342 0.00000 0.01741 0.00000 0.01290 0.00000 0.00962 0.00000 0.00721 0.00000 0.00000 0.00571 0.00000 0.00460 0.00000 0.00378 0.00000 0.00316 0.00000 0.00268 0.00000 0.00230 0.00000 0.00200 0.00000 0.00174 0.00000 0.00153 0.00000 0.00135 0.00000 0.00119 0.00000 0.00106 0.00000 0.00096 0.00000 0.00088 0.00000 0.00085 0.00000 0.04204 0.07255 0.09410 0.10706 0.11146 0.10803 0.09844 0.08497 0.07004 0.05560 0.04296 0.03266 0.02472 0.01880 0.01438 0.01148 0.00932 0.00771 0.00648 0.00551 0.00474 0.00412 0.00360 0.00316 0.00279 0.00247 0.00220 0.00198 0.00183 0.00176 0.00000 0.04831 0.08559 0.11298 0.13029 0.13729 0.13469 0.12433 0.10890 0.09123 0.07376 0.05811 0.04510 0.03484 0.02701 0.02106 0.01699 0.01393 0.01161 0.00981 0.00839 0.00724 0.00630 0.00552 0.00486 0.00429 0.00380 0.00339 0.00306 0.00282 0.00272 0.00000 0.04975 0.08969 0.12002 0.13999 0.14908 0.14785 0.13811 0.12258 0.10424 0.08570 0.06877 0.05442 0.04287 0.03388 0.02691 0.02199 0.01823 0.01532 0.01304 0.01121 0.00972 0.00849 0.00745 0.00656 0.00581 0.00516 0.00460 0.00415 0.00383 0.00370 0.00000 0.04790 0.08749 0.11840 0.13949 0.15000 0.15028 0.14196 0.12761 0.11010 0.09200 0.07516 0.06062 0.04869 0.03922 0.03172 0.02629 0.02205 0.01871 0.01605 0.01388 0.01209 0.01060 0.00933 0.00824 0.00730 0.00649 0.00580 0.00524 0.00483 0.00467 0.00000 0.04380 0.08093 0.11063 0.13157 0.14283 0.14455 0.13808 0.12571 0.11005 0.09347 0.07775 0.06392 0.05236 0.04298 0.03541 0.02977 0.02528 0.02167 0.01874 0.01632 0.01429 0.01257 0.01110 0.00983 0.00873 0.00777 0.00695 0.00628 0.00579 0.00560 0.00000 0.03834 0.07162 0.09887 0.11871 0.13012 0.13307 0.12861 0.11866 0.10546 0.09111 0.07721 0.06473 0.05408 0.04526 0.03798 0.03240 0.02786 0.02413 0.02104 0.01845 0.01624 0.01435 0.01271 0.01129 0.01004 0.00895 0.00802 0.00725 0.00669 0.00647 0.00000 0.03225 0.06093 0.08500 0.10309 0.11419 0.11810 0.11560 0.10819 0.09772 0.08596 0.07427 0.06353 0.05416 0.04621 0.03948 0.03418 0.02976 0.02604 0.02290 0.02021 0.01789 0.01588 0.01411 0.01256 0.01119 0.01000 0.00896 0.00811 0.00749 0.00725 0.00000 0.02613 0.05001 0.07058 0.08656 0.09700 0.10160 0.10085 0.09588 0.08814 0.07902 0.06968 0.06085 0.05294 0.04604 0.04003 0.03515 0.03097 0.02738 0.02427 0.02156 0.01919 0.01709 0.01524 0.01360 0.01214 0.01086 0.00974 0.00882 0.00815 0.00790 0.00000 0.02045 0.03972 0.05680 0.07056 0.08012 0.08511 0.08582 0.08302 0.07778 0.07117 0.06409 0.05716 0.05074 0.04494 0.03973 0.03534 0.03150 0.02812 0.02512 0.02245 0.02007 0.01795 0.01605 0.01435 0.01283 0.01149 0.01032 0.00935 0.00865 0.00840 0.01563 0.00000 0.03078 0.04461 0.05616 0.06467 0.06977 0.07156 0.07055 0.06745 0.06306 0.05804 0.05288 0.04787 0.04316 0.03871 0.03495 0.03150 0.02835 0.02550 0.02292 0.02058 0.01846 0.01655 0.01483 0.01328 0.01191 0.01071 0.00971 0.00898 0.00870 0.01159 0.00000 0.02322 0.03419 0.04374 0.05122 0.05624 0.05880 0.05916 0.05780 0.05523 0.05194 0.04829 0.04453 0.04080 0.03710 0.03389 0.03084 0.02798 0.02532 0.02286 0.02060 0.01854 0.01666 0.01495 0.01341 0.01203 0.01083 0.00982 0.00909 0.00881 0.00837 0.00000 0.01712 0.02570 0.03350 0.03997 0.04477 0.04779 0.04913 0.04906 0.04790 0.04597 0.04355 0.04083 0.03794 0.03490 0.03219 0.02953 0.02697 0.02453 0.02224 0.02011 0.01814 0.01633 0.01468 0.01318 0.01184 0.01066 0.00967 0.00896 0.00868 0.00592 0.00000 0.01240 0.01903 0.02533 0.03086 0.03530 0.03850 0.04045 0.04126 0.04110 0.04018 0.03869 0.03678 0.03458 0.03212 0.02986 0.02756 0.02530 0.02311 0.02102 0.01905 0.01722 0.01553 0.01397 0.01256 0.01129 0.01017 0.00923 0.00855 0.00829 0.00412 0.00000 0.00886 0.01392 0.01894 0.02358 0.02756 0.03070 0.03292 0.03423 0.03470 0.03446 0.03363 0.03233 0.03068 0.02871 0.02684 0.02490 0.02295 0.02102 0.01917 0.01741 0.01576 0.01423 0.01282 0.01153 0.01037 0.00935 0.00849 0.00786 0.00762 0.00282 0.00000 0.00624 0.01003 0.01395 0.01774 0.02115 0.02402 0.02621 0.02770 0.02849 0.02864 0.02824 0.02738 0.02615 0.02459 0.02309 0.02150 0.01987 0.01824 0.01667 0.01516 0.01374 0.01241 0.01119 0.01007 0.00906 0.00817 0.00742 0.00688 0.00667 0.00189 0.00000 0.00427 0.00702 0.00995 0.01289 0.01563 0.01803 0.01996 0.02135 0.02219 0.02250 0.02234 0.02179 0.02089 0.01970 0.01856 0.01732 0.01603 0.01475 0.01349 0.01228 0.01114 0.01007 0.00908 0.00818 0.00736 0.00664 0.00603 0.00559 0.00543 0.00118 0.00000 0.00272 0.00455 0.00655 0.00859 0.01055 0.01230 0.01375 0.01483 0.01552 0.01582 0.01577 0.01542 0.01482 0.01398 0.01320 0.01233 0.01143 0.01053 0.00964 0.00878 0.00797 0.00721 0.00650 0.00585 0.00527 0.00475 0.00432 0.00401 0.00389 0.00059 0.00000 0.00137 0.00231 0.00335 0.00443 0.00548 0.00642 0.00721 0.00781 0.00819 0.00837 0.00835 0.00818 0.00786 0.00740 0.00700 0.00655 0.00608 0.00560 0.00513 0.00467 0.00424 0.00384 0.00346 0.00312 0.00281 0.00253 0.00230 0.00214 0.00208 0.00000 0.00000 0.00000 0.00000 0.00000 0.00000 0.00000 0.00000 0.00000 0.00000 0.00000 0.00000 0.00000 0.00000 0.00000 0.00000 0.00000 0.00000 0.00000 0.00000 0.00000 0.00000 0.00000 0.00000 0.00000 0.00000 0.00000 0.00000 0.00000 0.00000 0.00000 0.00000 0.00000 0.03124 0.00000 0.05281 0.00000 0.06790 0.00000 0.07688 0.00000 0.07974 0.00000 0.07702 0.00000 0.06994 0.00000 0.06016 0.00000 0.04941 0.00000 0.03910 0.00000 0.03012 0.00000 0.02286 0.00000 0.01729 0.00000 0.01315 0.00000 0.01005 0.00000 0.00000 0.00805 0.00000 0.00655 0.00000 0.00542 0.00000 0.00456 0.00000 0.00389 0.00000 0.00335 0.00000 0.00291 0.00000 0.00254 0.00000 0.00224 0.00000 0.00197 0.00000 0.00175 0.00000 0.00156 0.00000 0.00140 0.00000 0.00129 0.00000 0.00125 0.00000 0.04754 0.08396 0.11059 0.12733 0.13398 0.13125 0.12097 0.10577 0.08845 0.07135 0.05609 0.04343 0.03348 0.02591 0.02016 0.01625 0.01331 0.01108 0.00936 0.00800 0.00691 0.00601 0.00526 0.00463 0.00409 0.00362 0.00323 0.00291 0.00268 0.00259 0.00000 0.05524 0.10021 0.13443 0.15695 0.16721 0.16584 0.15489 0.13740 0.11675 0.09584 0.07676 0.06058 0.04757 0.03747 0.02966 0.02414 0.01995 0.01672 0.01420 0.01219 0.01055 0.00920 0.00807 0.00711 0.00628 0.00558 0.00498 0.00449 0.00413 0.00399 0.00000 0.05733 0.10590 0.14409 0.17025 0.18339 0.18393 0.17386 0.15631 0.13480 0.11250 0.09170 0.07372 0.05897 0.04727 0.03807 0.03136 0.02617 0.02212 0.01890 0.01631 0.01418 0.01240 0.01090 0.00962 0.00851 0.00756 0.00676 0.00609 0.00562 0.00543 0.00000 0.05553 0.10400 0.14317 0.17095 0.18603 0.18856 0.18030 0.16420 0.14366 0.12183 0.10106 0.08274 0.06742 0.05502 0.04509 0.03762 0.03174 0.02707 0.02330 0.02022 0.01766 0.01550 0.01366 0.01208 0.01071 0.00953 0.00852 0.00769 0.00709 0.00685 0.00000 0.05107 0.09677 0.13464 0.16236 0.17844 0.18278 0.17680 0.16311 0.14481 0.12481 0.10537 0.08788 0.07296 0.06063 0.05055 0.04276 0.03650 0.03143 0.02727 0.02381 0.02089 0.01841 0.01627 0.01442 0.01281 0.01141 0.01021 0.00922 0.00851 0.00823 0.00000 0.04494 0.08613 0.12109 0.14749 0.16375 0.16957 0.16601 0.15524 0.13994 0.12266 0.10545 0.08963 0.07584 0.06418 0.05445 0.04670 0.04034 0.03508 0.03068 0.02696 0.02378 0.02104 0.01865 0.01657 0.01475 0.01315 0.01178 0.01065 0.00983 0.00951 0.00000 0.03802 0.07374 0.10480 0.12901 0.14481 0.15172 0.15049 0.14279 0.13082 0.11673 0.10227 0.08864 0.07645 0.06590 0.05686 0.04946 0.04323 0.03796 0.03346 0.02959 0.02623 0.02330 0.02072 0.01845 0.01645 0.01469 0.01317 0.01191 0.01100 0.01065 0.00000 0.03102 0.06096 0.08768 0.10921 0.12407 0.13170 0.13252 0.12777 0.11912 0.10831 0.09678 0.08557 0.07524 0.06604 0.05793 0.05106 0.04515 0.04002 0.03555 0.03163 0.02817 0.02512 0.02240 0.01999 0.01786 0.01597 0.01433 0.01297 0.01199 0.01161 0.00000 0.02446 0.04882 0.07119 0.08986 0.10350 0.11149 0.11399 0.11183 0.10625 0.09854 0.08986 0.08106 0.07264 0.06487 0.05779 0.05158 0.04610 0.04123 0.03688 0.03300 0.02953 0.02642 0.02363 0.02113 0.01890 0.01692 0.01520 0.01376 0.01272 0.01235 0.01889 0.00000 0.03821 0.05648 0.07228 0.08447 0.09243 0.09615 0.09611 0.09315 0.08821 0.08213 0.07558 0.06900 0.06264 0.05656 0.05118 0.04622 0.04167 0.03752 0.03374 0.03031 0.02720 0.02438 0.02184 0.01956 0.01753 0.01576 0.01428 0.01321 0.01280 0.01417 0.00000 0.02918 0.04384 0.05702 0.06777 0.07550 0.08005 0.08164 0.08079 0.07812 0.07422 0.06961 0.06464 0.05956 0.05444 0.04981 0.04539 0.04121 0.03731 0.03370 0.03038 0.02733 0.02455 0.02203 0.01976 0.01772 0.01594 0.01446 0.01337 0.01295 0.01039 0.00000 0.02184 0.03345 0.04433 0.05371 0.06102 0.06603 0.06876 0.06948 0.06855 0.06637 0.06332 0.05969 0.05570 0.05146 0.04750 0.04360 0.03982 0.03622 0.03284 0.02968 0.02677 0.02409 0.02164 0.01943 0.01744 0.01570 0.01424 0.01318 0.01276 0.00749 0.00000 0.01611 0.02521 0.03411 0.04218 0.04893 0.05406 0.05746 0.05922 0.05951 0.05860 0.05673 0.05415 0.05106 0.04757 0.04422 0.04082 0.03745 0.03419 0.03109 0.02816 0.02544 0.02292 0.02062 0.01852 0.01664 0.01498 0.01360 0.01259 0.01219 0.00534 0.00000 0.01176 0.01882 0.02601 0.03284 0.03888 0.04382 0.04747 0.04978 0.05083 0.05075 0.04971 0.04792 0.04555 0.04269 0.03989 0.03697 0.03404 0.03116 0.02839 0.02576 0.02330 0.02102 0.01892 0.01701 0.01529 0.01377 0.01250 0.01158 0.01122 0.00375 0.00000 0.00848 0.01386 0.01956 0.02518 0.03038 0.03483 0.03835 0.04080 0.04218 0.04256 0.04206 0.04082 0.03901 0.03671 0.03442 0.03200 0.02953 0.02708 0.02471 0.02245 0.02033 0.01835 0.01652 0.01486 0.01336 0.01204 0.01093 0.01013 0.00981 0.00258 0.00000 0.00595 0.00991 0.01424 0.01864 0.0228